Title: * spicenetlist
Date: Wed Feb 13 16:06:51  2019
Plotname: AC Analysis
Flags: complex
No. Variables: 6
No. Points: 3001
Variables:
	0	frequency	frequency grid=3
	1	v(vi)	voltage
	2	v(vo)	voltage
	3	i(i(v_v3))	current
	4	i(i(v_v1))	current
	5	i(i(v_v2))	current
Values:
 0	1.000000000000000e+001,0.000000000000000e+000
	1.000000000000000e-003,0.000000000000000e+000
	-9.089298324398951e-001,8.346037631759794e-003
	0.000000000000000e+000,0.000000000000000e+000
	-5.681394394833007e-008,5.153921673498146e-010
	0.000000000000000e+000,0.000000000000000e+000

 1	1.004615790278395e+001,0.000000000000000e+000
	1.000000000000000e-003,0.000000000000000e+000
	-9.089291237248728e-001,8.384554656469943e-003
	0.000000000000000e+000,0.000000000000000e+000
	-5.681390018280492e-008,5.177707059686913e-010
	0.000000000000000e+000,0.000000000000000e+000

 2	1.009252886076684e+001,0.000000000000000e+000
	1.000000000000000e-003,0.000000000000000e+000
	-9.089284084533111e-001,8.423249376792530e-003
	0.000000000000000e+000,0.000000000000000e+000
	-5.681385601239150e-008,5.201602178098831e-010
	0.000000000000000e+000,0.000000000000000e+000

 3	1.013911385736679e+001,0.000000000000000e+000
	1.000000000000000e-003,0.000000000000000e+000
	-9.089276865645647e-001,8.462122611669074e-003
	0.000000000000000e+000,0.000000000000000e+000
	-5.681381143334476e-008,5.225607534454172e-010
	0.000000000000000e+000,0.000000000000000e+000

 4	1.018591388054117e+001,0.000000000000000e+000
	1.000000000000000e-003,0.000000000000000e+000
	-9.089269579974253e-001,8.501175183803464e-003
	0.000000000000000e+000,0.000000000000000e+000
	-5.681376644188491e-008,5.249723636796578e-010
	0.000000000000000e+000,0.000000000000000e+000

 5	1.023292992280754e+001,0.000000000000000e+000
	1.000000000000000e-003,0.000000000000000e+000
	-9.089262226901211e-001,8.540407919679255e-003
	0.000000000000000e+000,0.000000000000000e+000
	-5.681372103419731e-008,5.273950995503740e-010
	0.000000000000000e+000,0.000000000000000e+000

 6	1.028016298126474e+001,0.000000000000000e+000
	1.000000000000000e-003,0.000000000000000e+000
	-9.089254805803079e-001,8.579821649576684e-003
	0.000000000000000e+000,0.000000000000000e+000
	-5.681367520643202e-008,5.298290123297916e-010
	0.000000000000000e+000,0.000000000000000e+000

 7	1.032761405761398e+001,0.000000000000000e+000
	1.000000000000000e-003,0.000000000000000e+000
	-9.089247316050654e-001,8.619417207590196e-003
	0.000000000000000e+000,0.000000000000000e+000
	-5.681362895470346e-008,5.322741535256743e-010
	0.000000000000000e+000,0.000000000000000e+000

 8	1.037528415818013e+001,0.000000000000000e+000
	1.000000000000000e-003,0.000000000000000e+000
	-9.089239757008911e-001,8.659195431645677e-003
	0.000000000000000e+000,0.000000000000000e+000
	-5.681358227509020e-008,5.347305748823889e-010
	0.000000000000000e+000,0.000000000000000e+000

 9	1.042317429393305e+001,0.000000000000000e+000
	1.000000000000000e-003,0.000000000000000e+000
	-9.089232128036965e-001,8.699157163517681e-003
	0.000000000000000e+000,0.000000000000000e+000
	-5.681353516363450e-008,5.371983283819687e-010
	0.000000000000000e+000,0.000000000000000e+000

 10	1.047128548050900e+001,0.000000000000000e+000
	1.000000000000000e-003,0.000000000000000e+000
	-9.089224428487980e-001,8.739303248847294e-003
	0.000000000000000e+000,0.000000000000000e+000
	-5.681348761634198e-008,5.396774662452162e-010
	0.000000000000000e+000,0.000000000000000e+000

 11	1.051961873823224e+001,0.000000000000000e+000
	1.000000000000000e-003,0.000000000000000e+000
	-9.089216657709166e-001,8.779634537159490e-003
	0.000000000000000e+000,0.000000000000000e+000
	-5.681343962918141e-008,5.421680409327758e-010
	0.000000000000000e+000,0.000000000000000e+000

 12	1.056817509213659e+001,0.000000000000000e+000
	1.000000000000000e-003,0.000000000000000e+000
	-9.089208815041691e-001,8.820151881880799e-003
	0.000000000000000e+000,0.000000000000000e+000
	-5.681339119808428e-008,5.446701051462240e-010
	0.000000000000000e+000,0.000000000000000e+000

 13	1.061695557198726e+001,0.000000000000000e+000
	1.000000000000000e-003,0.000000000000000e+000
	-9.089200899820629e-001,8.860856140357084e-003
	0.000000000000000e+000,0.000000000000000e+000
	-5.681334231894446e-008,5.471837118291674e-010
	0.000000000000000e+000,0.000000000000000e+000

 14	1.066596121230259e+001,0.000000000000000e+000
	1.000000000000000e-003,0.000000000000000e+000
	-9.089192911374889e-001,8.901748173871450e-003
	0.000000000000000e+000,0.000000000000000e+000
	-5.681329298761777e-008,5.497089141683491e-010
	0.000000000000000e+000,0.000000000000000e+000

 15	1.071519305237607e+001,0.000000000000000e+000
	1.000000000000000e-003,0.000000000000000e+000
	-9.089184849027207e-001,8.942828847661882e-003
	0.000000000000000e+000,0.000000000000000e+000
	-5.681324319992182e-008,5.522457655947376e-010
	0.000000000000000e+000,0.000000000000000e+000

 16	1.076465213629836e+001,0.000000000000000e+000
	1.000000000000000e-003,0.000000000000000e+000
	-9.089176712094037e-001,8.984099030939476e-003
	0.000000000000000e+000,0.000000000000000e+000
	-5.681319295163554e-008,5.547943197846524e-010
	0.000000000000000e+000,0.000000000000000e+000

 17	1.081433951297939e+001,0.000000000000000e+000
	1.000000000000000e-003,0.000000000000000e+000
	-9.089168499885512e-001,9.025559596906391e-003
	0.000000000000000e+000,0.000000000000000e+000
	-5.681314223849872e-008,5.573546306608731e-010
	0.000000000000000e+000,0.000000000000000e+000

 18	1.086425623617067e+001,0.000000000000000e+000
	1.000000000000000e-003,0.000000000000000e+000
	-9.089160211705398e-001,9.067211422773924e-003
	0.000000000000000e+000,0.000000000000000e+000
	-5.681309105621191e-008,5.599267523937540e-010
	0.000000000000000e+000,0.000000000000000e+000

 19	1.091440336448758e+001,0.000000000000000e+000
	1.000000000000000e-003,0.000000000000000e+000
	-9.089151846851018e-001,9.109055389780723e-003
	0.000000000000000e+000,0.000000000000000e+000
	-5.681303940043584e-008,5.625107394023520e-010
	0.000000000000000e+000,0.000000000000000e+000

 20	1.096478196143186e+001,0.000000000000000e+000
	1.000000000000000e-003,0.000000000000000e+000
	-9.089143404613194e-001,9.151092383211316e-003
	0.000000000000000e+000,0.000000000000000e+000
	-5.681298726679111e-008,5.651066463555676e-010
	0.000000000000000e+000,0.000000000000000e+000

 21	1.101539309541417e+001,0.000000000000000e+000
	1.000000000000000e-003,0.000000000000000e+000
	-9.089134884276203e-001,9.193323292414041e-003
	0.000000000000000e+000,0.000000000000000e+000
	-5.681293465085785e-008,5.677145281732532e-010
	0.000000000000000e+000,0.000000000000000e+000

 22	1.106623783977668e+001,0.000000000000000e+000
	1.000000000000000e-003,0.000000000000000e+000
	-9.089126285117692e-001,9.235749010819921e-003
	0.000000000000000e+000,0.000000000000000e+000
	-5.681288154817534e-008,5.703344400273801e-010
	0.000000000000000e+000,0.000000000000000e+000

 23	1.111731727281593e+001,0.000000000000000e+000
	1.000000000000000e-003,0.000000000000000e+000
	-9.089117606408638e-001,9.278370435960864e-003
	0.000000000000000e+000,0.000000000000000e+000
	-5.681282795424160e-008,5.729664373431602e-010
	0.000000000000000e+000,0.000000000000000e+000

 24	1.116863247780563e+001,0.000000000000000e+000
	1.000000000000000e-003,0.000000000000000e+000
	-9.089108847413271e-001,9.321188469488611e-003
	0.000000000000000e+000,0.000000000000000e+000
	-5.681277386451300e-008,5.756105758002173e-010
	0.000000000000000e+000,0.000000000000000e+000

 25	1.122018454301965e+001,0.000000000000000e+000
	1.000000000000000e-003,0.000000000000000e+000
	-9.089100007389028e-001,9.364204017193083e-003
	0.000000000000000e+000,0.000000000000000e+000
	-5.681271927440395e-008,5.782669113337200e-010
	0.000000000000000e+000,0.000000000000000e+000

 26	1.127197456175512e+001,0.000000000000000e+000
	1.000000000000000e-003,0.000000000000000e+000
	-9.089091085586482e-001,9.407417989021304e-003
	0.000000000000000e+000,0.000000000000000e+000
	-5.681266417928649e-008,5.809355001355501e-010
	0.000000000000000e+000,0.000000000000000e+000

 27	1.132400363235559e+001,0.000000000000000e+000
	1.000000000000000e-003,0.000000000000000e+000
	-9.089082081249252e-001,9.450831299096433e-003
	0.000000000000000e+000,0.000000000000000e+000
	-5.681260857448978e-008,5.836163986554779e-010
	0.000000000000000e+000,0.000000000000000e+000

 28	1.137627285823433e+001,0.000000000000000e+000
	1.000000000000000e-003,0.000000000000000e+000
	-9.089072993614005e-001,9.494444865736416e-003
	0.000000000000000e+000,0.000000000000000e+000
	-5.681255245529988e-008,5.863096636023140e-010
	0.000000000000000e+000,0.000000000000000e+000

 29	1.142878334789774e+001,0.000000000000000e+000
	1.000000000000000e-003,0.000000000000000e+000
	-9.089063821910317e-001,9.538259611473114e-003
	0.000000000000000e+000,0.000000000000000e+000
	-5.681249581695923e-008,5.890153519450902e-010
	0.000000000000000e+000,0.000000000000000e+000

 30	1.148153621496885e+001,0.000000000000000e+000
	1.000000000000000e-003,0.000000000000000e+000
	-9.089054565360661e-001,9.582276463071538e-003
	0.000000000000000e+000,0.000000000000000e+000
	-5.681243865466632e-008,5.917335209142483e-010
	0.000000000000000e+000,0.000000000000000e+000

 31	1.153453257821095e+001,0.000000000000000e+000
	1.000000000000000e-003,0.000000000000000e+000
	-9.089045223180317e-001,9.626496351548799e-003
	0.000000000000000e+000,0.000000000000000e+000
	-5.681238096357524e-008,5.944642280028089e-010
	0.000000000000000e+000,0.000000000000000e+000

 32	1.158777356155129e+001,0.000000000000000e+000
	1.000000000000000e-003,0.000000000000000e+000
	-9.089035794577296e-001,9.670920212193544e-003
	0.000000000000000e+000,0.000000000000000e+000
	-5.681232273879523e-008,5.972075309675736e-010
	0.000000000000000e+000,0.000000000000000e+000

 33	1.164126029410494e+001,0.000000000000000e+000
	1.000000000000000e-003,0.000000000000000e+000
	-9.089026278752319e-001,9.715548984585369e-003
	0.000000000000000e+000,0.000000000000000e+000
	-5.681226397539040e-008,5.999634878303211e-010
	0.000000000000000e+000,0.000000000000000e+000

 34	1.169499391019874e+001,0.000000000000000e+000
	1.000000000000000e-003,0.000000000000000e+000
	-9.089016674898689e-001,9.760383612614073e-003
	0.000000000000000e+000,0.000000000000000e+000
	-5.681220466837921e-008,6.027321568789983e-010
	0.000000000000000e+000,0.000000000000000e+000

 35	1.174897554939532e+001,0.000000000000000e+000
	1.000000000000000e-003,0.000000000000000e+000
	-9.089006982202258e-001,9.805425044499308e-003
	0.000000000000000e+000,0.000000000000000e+000
	-5.681214481273396e-008,6.055135966689342e-010
	0.000000000000000e+000,0.000000000000000e+000

 36	1.180320635651732e+001,0.000000000000000e+000
	1.000000000000000e-003,0.000000000000000e+000
	-9.088997199841371e-001,9.850674232810134e-003
	0.000000000000000e+000,0.000000000000000e+000
	-5.681208440338067e-008,6.083078660240443e-010
	0.000000000000000e+000,0.000000000000000e+000

 37	1.185768748167163e+001,0.000000000000000e+000
	1.000000000000000e-003,0.000000000000000e+000
	-9.088987326986754e-001,9.896132134484745e-003
	0.000000000000000e+000,0.000000000000000e+000
	-5.681202343519829e-008,6.111150240380523e-010
	0.000000000000000e+000,0.000000000000000e+000

 38	1.191242008027378e+001,0.000000000000000e+000
	1.000000000000000e-003,0.000000000000000e+000
	-9.088977362801471e-001,9.941799710850314e-003
	0.000000000000000e+000,0.000000000000000e+000
	-5.681196190301849e-008,6.139351300757141e-010
	0.000000000000000e+000,0.000000000000000e+000

 39	1.196740531307247e+001,0.000000000000000e+000
	1.000000000000000e-003,0.000000000000000e+000
	-9.088967306440857e-001,9.987677927642725e-003
	0.000000000000000e+000,0.000000000000000e+000
	-5.681189980162518e-008,6.167682437740363e-010
	0.000000000000000e+000,0.000000000000000e+000

 40	1.202264434617416e+001,0.000000000000000e+000
	1.000000000000000e-003,0.000000000000000e+000
	-9.088957157052435e-001,1.003376775502663e-002
	0.000000000000000e+000,0.000000000000000e+000
	-5.681183712575401e-008,6.196144250435140e-010
	0.000000000000000e+000,0.000000000000000e+000

 41	1.207813835106784e+001,0.000000000000000e+000
	1.000000000000000e-003,0.000000000000000e+000
	-9.088946913775855e-001,1.008007016761539e-002
	0.000000000000000e+000,0.000000000000000e+000
	-5.681177387009202e-008,6.224737340693638e-010
	0.000000000000000e+000,0.000000000000000e+000

 42	1.213388850464981e+001,0.000000000000000e+000
	1.000000000000000e-003,0.000000000000000e+000
	-9.088936575742803e-001,1.012658614449131e-002
	0.000000000000000e+000,0.000000000000000e+000
	-5.681171002927709e-008,6.253462313127726e-010
	0.000000000000000e+000,0.000000000000000e+000

 43	1.218989598924870e+001,0.000000000000000e+000
	1.000000000000000e-003,0.000000000000000e+000
	-9.088926142076941e-001,1.017331666922586e-002
	0.000000000000000e+000,0.000000000000000e+000
	-5.681164559789756e-008,6.282319775121462e-010
	0.000000000000000e+000,0.000000000000000e+000

 44	1.224616199265052e+001,0.000000000000000e+000
	1.000000000000000e-003,0.000000000000000e+000
	-9.088915611893835e-001,1.022026272989986e-002
	0.000000000000000e+000,0.000000000000000e+000
	-5.681158057049172e-008,6.311310336843560e-010
	0.000000000000000e+000,0.000000000000000e+000

 45	1.230268770812385e+001,0.000000000000000e+000
	1.000000000000000e-003,0.000000000000000e+000
	-9.088904984300872e-001,1.026742531912397e-002
	0.000000000000000e+000,0.000000000000000e+000
	-5.681151494154740e-008,6.340434611260030e-010
	0.000000000000000e+000,0.000000000000000e+000

 46	1.235947433444514e+001,0.000000000000000e+000
	1.000000000000000e-003,0.000000000000000e+000
	-9.088894258397190e-001,1.031480543405909e-002
	0.000000000000000e+000,0.000000000000000e+000
	-5.681144870550151e-008,6.369693214146816e-010
	0.000000000000000e+000,0.000000000000000e+000

 47	1.241652307592415e+001,0.000000000000000e+000
	1.000000000000000e-003,0.000000000000000e+000
	-9.088883433273600e-001,1.036240407643696e-002
	0.000000000000000e+000,0.000000000000000e+000
	-5.681138185673946e-008,6.399086764102460e-010
	0.000000000000000e+000,0.000000000000000e+000

 48	1.247383514242947e+001,0.000000000000000e+000
	1.000000000000000e-003,0.000000000000000e+000
	-9.088872508012508e-001,1.041022225258097e-002
	0.000000000000000e+000,0.000000000000000e+000
	-5.681131438959479e-008,6.428615882560993e-010
	0.000000000000000e+000,0.000000000000000e+000

 49	1.253141174941420e+001,0.000000000000000e+000
	1.000000000000000e-003,0.000000000000000e+000
	-9.088861481687838e-001,1.045826097342660e-002
	0.000000000000000e+000,0.000000000000000e+000
	-5.681124629834873e-008,6.458281193804544e-010
	0.000000000000000e+000,0.000000000000000e+000

 50	1.258925411794171e+001,0.000000000000000e+000
	1.000000000000000e-003,0.000000000000000e+000
	-9.088850353364952e-001,1.050652125454242e-002
	0.000000000000000e+000,0.000000000000000e+000
	-5.681117757722953e-008,6.488083324976324e-010
	0.000000000000000e+000,0.000000000000000e+000

 51	1.264736347471156e+001,0.000000000000000e+000
	1.000000000000000e-003,0.000000000000000e+000
	-9.088839122100585e-001,1.055500411615118e-002
	0.000000000000000e+000,0.000000000000000e+000
	-5.681110822041219e-008,6.518022906093609e-010
	0.000000000000000e+000,0.000000000000000e+000

 52	1.270574105208546e+001,0.000000000000000e+000
	1.000000000000000e-003,0.000000000000000e+000
	-9.088827786942738e-001,1.060371058315051e-002
	0.000000000000000e+000,0.000000000000000e+000
	-5.681103822201787e-008,6.548100570060568e-010
	0.000000000000000e+000,0.000000000000000e+000

 53	1.276438808811348e+001,0.000000000000000e+000
	1.000000000000000e-003,0.000000000000000e+000
	-9.088816346930618e-001,1.065264168513415e-002
	0.000000000000000e+000,0.000000000000000e+000
	-5.681096757611330e-008,6.578316952681348e-010
	0.000000000000000e+000,0.000000000000000e+000

 54	1.282330582656026e+001,0.000000000000000e+000
	1.000000000000000e-003,0.000000000000000e+000
	-9.088804801094560e-001,1.070179845641323e-002
	0.000000000000000e+000,0.000000000000000e+000
	-5.681089627671047e-008,6.608672692673231e-010
	0.000000000000000e+000,0.000000000000000e+000

 55	1.288249551693139e+001,0.000000000000000e+000
	1.000000000000000e-003,0.000000000000000e+000
	-9.088793148455922e-001,1.075118193603749e-002
	0.000000000000000e+000,0.000000000000000e+000
	-5.681082431776597e-008,6.639168431679725e-010
	0.000000000000000e+000,0.000000000000000e+000

 56	1.294195841449991e+001,0.000000000000000e+000
	1.000000000000000e-003,0.000000000000000e+000
	-9.088781388027031e-001,1.080079316781665e-002
	0.000000000000000e+000,0.000000000000000e+000
	-5.681075169318057e-008,6.669804814283754e-010
	0.000000000000000e+000,0.000000000000000e+000

 57	1.300169578033295e+001,0.000000000000000e+000
	1.000000000000000e-003,0.000000000000000e+000
	-9.088769518811072e-001,1.085063320034195e-002
	0.000000000000000e+000,0.000000000000000e+000
	-5.681067839679861e-008,6.700582488020972e-010
	0.000000000000000e+000,0.000000000000000e+000

 58	1.306170888131847e+001,0.000000000000000e+000
	1.000000000000000e-003,0.000000000000000e+000
	-9.088757539802026e-001,1.090070308700742e-002
	0.000000000000000e+000,0.000000000000000e+000
	-5.681060442240759e-008,6.731502103392913e-010
	0.000000000000000e+000,0.000000000000000e+000

 59	1.312199899019208e+001,0.000000000000000e+000
	1.000000000000000e-003,0.000000000000000e+000
	-9.088745449984577e-001,1.095100388603214e-002
	0.000000000000000e+000,0.000000000000000e+000
	-5.681052976373757e-008,6.762564313880697e-010
	0.000000000000000e+000,0.000000000000000e+000

 60	1.318256738556413e+001,0.000000000000000e+000
	1.000000000000000e-003,0.000000000000000e+000
	-9.088733248334024e-001,1.100153666048126e-002
	0.000000000000000e+000,0.000000000000000e+000
	-5.681045441446072e-008,6.793769775958050e-010
	0.000000000000000e+000,0.000000000000000e+000

 61	1.324341535194670e+001,0.000000000000000e+000
	1.000000000000000e-003,0.000000000000000e+000
	-9.088720933816189e-001,1.105230247828842e-002
	0.000000000000000e+000,0.000000000000000e+000
	-5.681037836819058e-008,6.825119149105123e-010
	0.000000000000000e+000,0.000000000000000e+000

 62	1.330454417978097e+001,0.000000000000000e+000
	1.000000000000000e-003,0.000000000000000e+000
	-9.088708505387342e-001,1.110330241227734e-002
	0.000000000000000e+000,0.000000000000000e+000
	-5.681030161848184e-008,6.856613095821842e-010
	0.000000000000000e+000,0.000000000000000e+000

 63	1.336595516546448e+001,0.000000000000000e+000
	1.000000000000000e-003,0.000000000000000e+000
	-9.088695961994104e-001,1.115453754018410e-002
	0.000000000000000e+000,0.000000000000000e+000
	-5.681022415882949e-008,6.888252281641655e-010
	0.000000000000000e+000,0.000000000000000e+000

 64	1.342764961137870e+001,0.000000000000000e+000
	1.000000000000000e-003,0.000000000000000e+000
	-9.088683302573368e-001,1.120600894467896e-002
	0.000000000000000e+000,0.000000000000000e+000
	-5.681014598266851e-008,6.920037375144992e-010
	0.000000000000000e+000,0.000000000000000e+000

 65	1.348962882591660e+001,0.000000000000000e+000
	1.000000000000000e-003,0.000000000000000e+000
	-9.088670526052197e-001,1.125771771338886e-002
	0.000000000000000e+000,0.000000000000000e+000
	-5.681006708337311e-008,6.951969047973214e-010
	0.000000000000000e+000,0.000000000000000e+000

 66	1.355189412351042e+001,0.000000000000000e+000
	1.000000000000000e-003,0.000000000000000e+000
	-9.088657631347735e-001,1.130966493891959e-002
	0.000000000000000e+000,0.000000000000000e+000
	-5.680998745425634e-008,6.984047974842234e-010
	0.000000000000000e+000,0.000000000000000e+000

 67	1.361444682465956e+001,0.000000000000000e+000
	1.000000000000000e-003,0.000000000000000e+000
	-9.088644617367120e-001,1.136185171887824e-002
	0.000000000000000e+000,0.000000000000000e+000
	-5.680990708856942e-008,7.016274833556425e-010
	0.000000000000000e+000,0.000000000000000e+000

 68	1.367728825595855e+001,0.000000000000000e+000
	1.000000000000000e-003,0.000000000000000e+000
	-9.088631483007401e-001,1.141427915589560e-002
	0.000000000000000e+000,0.000000000000000e+000
	-5.680982597950120e-008,7.048650305022447e-010
	0.000000000000000e+000,0.000000000000000e+000

 69	1.374041975012522e+001,0.000000000000000e+000
	1.000000000000000e-003,0.000000000000000e+000
	-9.088618227155418e-001,1.146694835764893e-002
	0.000000000000000e+000,0.000000000000000e+000
	-5.680974412017760e-008,7.081175073263301e-010
	0.000000000000000e+000,0.000000000000000e+000

 70	1.380384264602891e+001,0.000000000000000e+000
	1.000000000000000e-003,0.000000000000000e+000
	-9.088604848687737e-001,1.151986043688459e-002
	0.000000000000000e+000,0.000000000000000e+000
	-5.680966150366100e-008,7.113849825432288e-010
	0.000000000000000e+000,0.000000000000000e+000

 71	1.386755828871895e+001,0.000000000000000e+000
	1.000000000000000e-003,0.000000000000000e+000
	-9.088591346470532e-001,1.157301651144080e-002
	0.000000000000000e+000,0.000000000000000e+000
	-5.680957812294968e-008,7.146675251827100e-010
	0.000000000000000e+000,0.000000000000000e+000

 72	1.393156802945310e+001,0.000000000000000e+000
	1.000000000000000e-003,0.000000000000000e+000
	-9.088577719359505e-001,1.162641770427036e-002
	0.000000000000000e+000,0.000000000000000e+000
	-5.680949397097719e-008,7.179652045903825e-010
	0.000000000000000e+000,0.000000000000000e+000

 73	1.399587322572625e+001,0.000000000000000e+000
	1.000000000000000e-003,0.000000000000000e+000
	-9.088563966199791e-001,1.168006514346407e-002
	0.000000000000000e+000,0.000000000000000e+000
	-5.680940904061184e-008,7.212780904291414e-010
	0.000000000000000e+000,0.000000000000000e+000

 74	1.406047524129921e+001,0.000000000000000e+000
	1.000000000000000e-003,0.000000000000000e+000
	-9.088550085825836e-001,1.173395996227335e-002
	0.000000000000000e+000,0.000000000000000e+000
	-5.680932332465601e-008,7.246062526805653e-010
	0.000000000000000e+000,0.000000000000000e+000

 75	1.412537544622761e+001,0.000000000000000e+000
	1.000000000000000e-003,0.000000000000000e+000
	-9.088536077061332e-001,1.178810329913366e-002
	0.000000000000000e+000,0.000000000000000e+000
	-5.680923681584553e-008,7.279497616463624e-010
	0.000000000000000e+000,0.000000000000000e+000

 76	1.419057521689099e+001,0.000000000000000e+000
	1.000000000000000e-003,0.000000000000000e+000
	-9.088521938719095e-001,1.184249629768786e-002
	0.000000000000000e+000,0.000000000000000e+000
	-5.680914950684918e-008,7.313086879498124e-010
	0.000000000000000e+000,0.000000000000000e+000

 77	1.425607593602195e+001,0.000000000000000e+000
	1.000000000000000e-003,0.000000000000000e+000
	-9.088507669600963e-001,1.189714010680931e-002
	0.000000000000000e+000,0.000000000000000e+000
	-5.680906139026788e-008,7.346831025371938e-010
	0.000000000000000e+000,0.000000000000000e+000

 78	1.432187899273551e+001,0.000000000000000e+000
	1.000000000000000e-003,0.000000000000000e+000
	-9.088493268497717e-001,1.195203588062554e-002
	0.000000000000000e+000,0.000000000000000e+000
	-5.680897245863434e-008,7.380730766792471e-010
	0.000000000000000e+000,0.000000000000000e+000

 79	1.438798578255853e+001,0.000000000000000e+000
	1.000000000000000e-003,0.000000000000000e+000
	-9.088478734188955e-001,1.200718477854181e-002
	0.000000000000000e+000,0.000000000000000e+000
	-5.680888270441214e-008,7.414786819726246e-010
	0.000000000000000e+000,0.000000000000000e+000

 80	1.445439770745935e+001,0.000000000000000e+000
	1.000000000000000e-003,0.000000000000000e+000
	-9.088464065443007e-001,1.206258796526463e-002
	0.000000000000000e+000,0.000000000000000e+000
	-5.680879211999530e-008,7.448999903413498e-010
	0.000000000000000e+000,0.000000000000000e+000

 81	1.452111617587750e+001,0.000000000000000e+000
	1.000000000000000e-003,0.000000000000000e+000
	-9.088449261016806e-001,1.211824661082593e-002
	0.000000000000000e+000,0.000000000000000e+000
	-5.680870069770748e-008,7.483370740383046e-010
	0.000000000000000e+000,0.000000000000000e+000

 82	1.458814260275356e+001,0.000000000000000e+000
	1.000000000000000e-003,0.000000000000000e+000
	-9.088434319655818e-001,1.217416189060634e-002
	0.000000000000000e+000,0.000000000000000e+000
	-5.680860842980151e-008,7.517900056466675e-010
	0.000000000000000e+000,0.000000000000000e+000

 83	1.465547840955919e+001,0.000000000000000e+000
	1.000000000000000e-003,0.000000000000000e+000
	-9.088419240093905e-001,1.223033498535960e-002
	0.000000000000000e+000,0.000000000000000e+000
	-5.680851530845857e-008,7.552588580814255e-010
	0.000000000000000e+000,0.000000000000000e+000

 84	1.472312502432727e+001,0.000000000000000e+000
	1.000000000000000e-003,0.000000000000000e+000
	-9.088404021053235e-001,1.228676708123661e-002
	0.000000000000000e+000,0.000000000000000e+000
	-5.680842132578763e-008,7.587437045908521e-010
	0.000000000000000e+000,0.000000000000000e+000

 85	1.479108388168215e+001,0.000000000000000e+000
	1.000000000000000e-003,0.000000000000000e+000
	-9.088388661244176e-001,1.234345936980936e-002
	0.000000000000000e+000,0.000000000000000e+000
	-5.680832647382474e-008,7.622446187579917e-010
	0.000000000000000e+000,0.000000000000000e+000

 86	1.485935642287015e+001,0.000000000000000e+000
	1.000000000000000e-003,0.000000000000000e+000
	-9.088373159365170e-001,1.240041304809542e-002
	0.000000000000000e+000,0.000000000000000e+000
	-5.680823074453235e-008,7.657616745021684e-010
	0.000000000000000e+000,0.000000000000000e+000

 87	1.492794409579004e+001,0.000000000000000e+000
	1.000000000000000e-003,0.000000000000000e+000
	-9.088357514102633e-001,1.245762931858227e-002
	0.000000000000000e+000,0.000000000000000e+000
	-5.680813412979869e-008,7.692949460804884e-010
	0.000000000000000e+000,0.000000000000000e+000

 88	1.499684835502382e+001,0.000000000000000e+000
	1.000000000000000e-003,0.000000000000000e+000
	-9.088341724130857e-001,1.251510938925174e-002
	0.000000000000000e+000,0.000000000000000e+000
	-5.680803662143702e-008,7.728445080893501e-010
	0.000000000000000e+000,0.000000000000000e+000

 89	1.506607066186751e+001,0.000000000000000e+000
	1.000000000000000e-003,0.000000000000000e+000
	-9.088325788111876e-001,1.257285447360453e-002
	0.000000000000000e+000,0.000000000000000e+000
	-5.680793821118497e-008,7.764104354659598e-010
	0.000000000000000e+000,0.000000000000000e+000

 90	1.513561248436217e+001,0.000000000000000e+000
	1.000000000000000e-003,0.000000000000000e+000
	-9.088309704695367e-001,1.263086579068509e-002
	0.000000000000000e+000,0.000000000000000e+000
	-5.680783889070383e-008,7.799928034898649e-010
	0.000000000000000e+000,0.000000000000000e+000

 91	1.520547529732504e+001,0.000000000000000e+000
	1.000000000000000e-003,0.000000000000000e+000
	-9.088293472518522e-001,1.268914456510623e-002
	0.000000000000000e+000,0.000000000000000e+000
	-5.680773865157784e-008,7.835916877844747e-010
	0.000000000000000e+000,0.000000000000000e+000

 92	1.527566058238082e+001,0.000000000000000e+000
	1.000000000000000e-003,0.000000000000000e+000
	-9.088277090205963e-001,1.274769202707413e-002
	0.000000000000000e+000,0.000000000000000e+000
	-5.680763748531354e-008,7.872071643186076e-010
	0.000000000000000e+000,0.000000000000000e+000

 93	1.534616982799303e+001,0.000000000000000e+000
	1.000000000000000e-003,0.000000000000000e+000
	-9.088260556369588e-001,1.280650941241323e-002
	0.000000000000000e+000,0.000000000000000e+000
	-5.680753538333894e-008,7.908393094080241e-010
	0.000000000000000e+000,0.000000000000000e+000

 94	1.541700452949569e+001,0.000000000000000e+000
	1.000000000000000e-003,0.000000000000000e+000
	-9.088243869608470e-001,1.286559796259135e-002
	0.000000000000000e+000,0.000000000000000e+000
	-5.680743233700288e-008,7.944881997169805e-010
	0.000000000000000e+000,0.000000000000000e+000

 95	1.548816618912491e+001,0.000000000000000e+000
	1.000000000000000e-003,0.000000000000000e+000
	-9.088227028508755e-001,1.292495892474501e-002
	0.000000000000000e+000,0.000000000000000e+000
	-5.680732833757431e-008,7.981539122597912e-010
	0.000000000000000e+000,0.000000000000000e+000

 96	1.555965631605084e+001,0.000000000000000e+000
	1.000000000000000e-003,0.000000000000000e+000
	-9.088210031643524e-001,1.298459355170454e-002
	0.000000000000000e+000,0.000000000000000e+000
	-5.680722337624152e-008,8.018365244023812e-010
	0.000000000000000e+000,0.000000000000000e+000

 97	1.563147642640964e+001,0.000000000000000e+000
	1.000000000000000e-003,0.000000000000000e+000
	-9.088192877572663e-001,1.304450310201972e-002
	0.000000000000000e+000,0.000000000000000e+000
	-5.680711744411134e-008,8.055361138638664e-010
	0.000000000000000e+000,0.000000000000000e+000

 98	1.570362804333562e+001,0.000000000000000e+000
	1.000000000000000e-003,0.000000000000000e+000
	-9.088175564842762e-001,1.310468883998505e-002
	0.000000000000000e+000,0.000000000000000e+000
	-5.680701053220851e-008,8.092527587181182e-010
	0.000000000000000e+000,0.000000000000000e+000

 99	1.577611269699359e+001,0.000000000000000e+000
	1.000000000000000e-003,0.000000000000000e+000
	-9.088158091986996e-001,1.316515203566560e-002
	0.000000000000000e+000,0.000000000000000e+000
	-5.680690263147482e-008,8.129865373953548e-010
	0.000000000000000e+000,0.000000000000000e+000

 100	1.584893192461124e+001,0.000000000000000e+000
	1.000000000000000e-003,0.000000000000000e+000
	-9.088140457524981e-001,1.322589396492253e-002
	0.000000000000000e+000,0.000000000000000e+000
	-5.680679373276845e-008,8.167375286837219e-010
	0.000000000000000e+000,0.000000000000000e+000

 101	1.592208727051180e+001,0.000000000000000e+000
	1.000000000000000e-003,0.000000000000000e+000
	-9.088122659962648e-001,1.328691590943922e-002
	0.000000000000000e+000,0.000000000000000e+000
	-5.680668382686301e-008,8.205058117309034e-010
	0.000000000000000e+000,0.000000000000000e+000

 102	1.599558028614679e+001,0.000000000000000e+000
	1.000000000000000e-003,0.000000000000000e+000
	-9.088104697792144e-001,1.334821915674673e-002
	0.000000000000000e+000,0.000000000000000e+000
	-5.680657290444701e-008,8.242914660456945e-010
	0.000000000000000e+000,0.000000000000000e+000

 103	1.606941253012888e+001,0.000000000000000e+000